# vtk DataFile Version 4.2
vtk output
ASCII
DATASET UNSTRUCTURED_GRID
POINTS 171 double
-10 2 -2 -10 -2 2 -10 -2 6 
-10 10 2 -10 10 10 -10 10 -10 
-10 10 6 -10 -10 10 -10 -10 -10 
-10 -10 -6 -10 6 -6 -10 -6 10 
-10 -6 6 -6 10 10 -6 10 -10 
-6 -10 10 -6 -10 -10 -2 2 2 
-2 2 -2 -2 2 -10 -2 2 6 
-2 2 -6 -2 -2 2 -2 -2 -2 
-2 -2 -10 -2 -2 6 -2 -2 -6 
-2 10 2 -2 10 -2 -2 10 10 
-2 10 -10 -2 10 -6 -2 -10 2 
-2 -10 -2 -2 -10 10 -2 -10 -10 
-2 -10 -6 -2 6 2 -2 6 -2 
-2 6 -10 -2 6 -6 -2 -6 2 
-2 -6 -2 -2 -6 -10 -2 -6 -6 
-6 2 10 -6 2 -10 -6 -2 10 
-6 -2 -10 -6 10 2 -6 10 -2 
-6 10 10 -6 10 -10 -6 10 6 
-6 10 -6 -6 -10 2 -6 -10 -2 
-6 -10 10 -6 -10 -10 -6 -10 6 
-6 -10 -6 -6 6 10 -6 6 -10 
-6 -6 10 -6 -6 -10 2 -2 -10 
2 10 10 2 10 -10 2 -10 10 
2 -10 -10 2 -6 -10 -2 2 10 
-2 2 -10 -2 -2 10 -2 -2 -10 
-2 10 2 -2 10 -2 -2 10 10 
-2 10 -10 -2 10 6 -2 10 -6 
-2 -10 2 -2 -10 -2 -2 -10 10 
-2 -10 -10 -2 -10 6 -2 -10 -6 
-2 6 10 -2 6 -10 -2 -6 10 
-2 -6 -10 2 2 10 2 2 -10 
2 -2 10 2 -2 -10 2 10 2 
2 10 -2 2 10 10 2 10 -10 
2 10 6 2 10 -6 2 -10 2 
2 -10 -2 2 -10 10 2 -10 -10 
2 -10 6 2 -10 -6 2 6 10 
2 6 -10 2 -6 10 2 -6 -10 
6 2 2 6 2 -2 6 2 10 
6 2 -10 6 2 6 6 2 -6 
6 -2 2 6 -2 -2 6 -2 10 
6 -2 -10 6 -2 6 6 -2 -6 
6 10 2 6 10 -2 6 10 10 
6 10 -10 6 10 6 6 10 -6 
6 -10 2 6 -10 -2 6 -10 10 
6 -10 -10 6 -10 6 6 -10 -6 
6 6 2 6 6 -2 6 6 10 
6 6 -10 6 6 6 6 6 -6 
6 -6 2 6 -6 -2 6 -6 10 
6 -6 -10 6 -6 6 6 -6 -6 
10 10 10 10 10 -10 10 -10 10 
10 -10 -10 6 2 10 6 2 -10 
6 -2 10 6 -2 -10 6 10 2 
6 10 -2 6 10 10 6 10 -10 
6 10 6 6 10 -6 6 -10 2 
6 -10 -2 6 -10 10 6 -10 -10 
6 -10 6 6 -10 -6 6 6 10 
6 6 -10 6 -6 10 6 -6 -10 

CELLS 250 1000
3 8 16 9 
3 15 9 16 
3 14 16 8 
3 8 0 10 
3 8 5 14 
3 8 10 5 
3 3 5 10 
3 5 3 14 
3 13 14 3 
3 8 1 0 
3 6 10 0 
3 10 6 3 
3 12 8 9 
3 8 12 1 
3 2 1 12 
3 1 2 0 
3 0 2 6 
3 3 6 13 
3 9 15 7 
3 9 7 12 
3 11 12 7 
3 12 11 2 
3 4 2 11 
3 2 4 6 
3 6 4 13 
3 7 15 11 
3 13 11 15 
3 11 13 4 
3 16 14 15 
3 15 14 13 
3 35 58 43 
3 64 43 58 
3 35 36 58 
3 60 58 36 
3 36 33 60 
3 56 60 33 
3 43 64 24 
3 48 24 64 
3 24 48 19 
3 46 19 48 
3 19 46 39 
3 62 39 46 
3 39 62 30 
3 52 30 62 
3 30 52 31 
3 54 31 52 
3 31 54 28 
3 50 28 54 
3 33 32 56 
3 55 56 32 
3 28 50 27 
3 49 27 50 
3 59 55 32 
3 53 27 49 
3 32 34 59 
3 57 59 34 
3 27 53 29 
3 51 29 53 
3 63 57 34 
3 34 29 63 
3 47 63 29 
3 45 47 29 
3 61 45 29 
3 51 61 29 
3 35 43 36 
3 44 36 43 
3 36 44 33 
3 42 33 44 
3 43 24 44 
3 26 44 24 
3 44 26 42 
3 23 42 26 
3 24 19 26 
3 21 26 19 
3 26 21 23 
3 18 23 21 
3 19 39 21 
3 40 21 39 
3 21 40 18 
3 38 18 40 
3 39 30 40 
3 31 40 30 
3 40 31 38 
3 28 38 31 
3 33 42 32 
3 41 32 42 
3 42 23 41 
3 22 41 23 
3 23 18 22 
3 17 22 18 
3 18 38 17 
3 37 17 38 
3 38 28 37 
3 27 37 28 
3 25 41 22 
3 22 17 25 
3 20 25 17 
3 17 37 20 
3 37 27 20 
3 32 41 34 
3 41 25 34 
3 29 34 25 
3 25 20 29 
3 20 27 29 
3 69 84 70 
3 90 70 84 
3 69 68 84 
3 86 84 68 
3 82 86 68 
3 70 90 65 
3 74 65 90 
3 72 65 74 
3 88 65 72 
3 65 88 67 
3 78 67 88 
3 80 67 78 
3 67 80 66 
3 76 66 80 
3 81 82 68 
3 75 66 76 
3 85 81 68 
3 79 66 75 
3 83 85 68 
3 77 66 79 
3 89 83 68 
3 68 66 89 
3 73 89 66 
3 71 73 66 
3 87 71 66 
3 77 87 66 
3 69 70 68 
3 70 65 68 
3 65 67 68 
3 68 67 66 
3 132 104 144 
3 110 144 104 
3 132 134 104 
3 106 104 134 
3 134 130 106 
3 102 106 130 
3 144 110 120 
3 94 120 110 
3 120 94 114 
3 92 114 94 
3 114 92 138 
3 108 138 92 
3 138 108 126 
3 98 126 108 
3 126 98 128 
3 100 128 98 
3 128 100 124 
3 96 124 100 
3 130 129 102 
3 101 102 129 
3 124 96 123 
3 95 123 96 
3 129 133 101 
3 105 101 133 
3 123 95 127 
3 99 127 95 
3 133 131 105 
3 103 105 131 
3 127 99 125 
3 97 125 99 
3 131 143 103 
3 109 103 143 
3 143 119 109 
3 93 109 119 
3 119 113 93 
3 91 93 113 
3 113 137 91 
3 107 91 137 
3 137 125 107 
3 97 107 125 
3 132 144 134 
3 146 134 144 
3 134 146 130 
3 142 130 146 
3 144 120 146 
3 122 146 120 
3 146 122 142 
3 118 142 122 
3 120 114 122 
3 116 122 114 
3 122 116 118 
3 112 118 116 
3 114 138 116 
3 140 116 138 
3 116 140 112 
3 136 112 140 
3 138 126 140 
3 128 140 126 
3 140 128 136 
3 124 136 128 
3 130 142 129 
3 141 129 142 
3 142 118 141 
3 117 141 118 
3 118 112 117 
3 111 117 112 
3 112 136 111 
3 135 111 136 
3 136 124 135 
3 123 135 124 
3 129 141 133 
3 145 133 141 
3 141 117 145 
3 121 145 117 
3 117 111 121 
3 115 121 111 
3 111 135 115 
3 139 115 135 
3 135 123 139 
3 127 139 123 
3 133 145 131 
3 143 131 145 
3 145 121 143 
3 119 143 121 
3 121 115 119 
3 113 119 115 
3 115 139 113 
3 137 113 139 
3 139 127 137 
3 125 137 127 
3 170 150 164 
3 150 149 164 
3 166 164 149 
3 162 166 149 
3 150 148 149 
3 150 170 148 
3 154 148 170 
3 152 148 154 
3 168 148 152 
3 158 148 168 
3 160 148 158 
3 156 148 160 
3 161 162 149 
3 149 148 147 
3 155 148 156 
3 165 161 149 
3 159 148 155 
3 163 165 149 
3 148 159 147 
3 157 147 159 
3 169 163 149 
3 149 147 169 
3 153 169 147 
3 151 153 147 
3 167 151 147 
3 157 167 147 

CELL_TYPES 250
5
5
5
5
5
5
5
5
5
5
5
5
5
5
5
5
5
5
5
5
5
5
5
5
5
5
5
5
5
5
5
5
5
5
5
5
5
5
5
5
5
5
5
5
5
5
5
5
5
5
5
5
5
5
5
5
5
5
5
5
5
5
5
5
5
5
5
5
5
5
5
5
5
5
5
5
5
5
5
5
5
5
5
5
5
5
5
5
5
5
5
5
5
5
5
5
5
5
5
5
5
5
5
5
5
5
5
5
5
5
5
5
5
5
5
5
5
5
5
5
5
5
5
5
5
5
5
5
5
5
5
5
5
5
5
5
5
5
5
5
5
5
5
5
5
5
5
5
5
5
5
5
5
5
5
5
5
5
5
5
5
5
5
5
5
5
5
5
5
5
5
5
5
5
5
5
5
5
5
5
5
5
5
5
5
5
5
5
5
5
5
5
5
5
5
5
5
5
5
5
5
5
5
5
5
5
5
5
5
5
5
5
5
5
5
5
5
5
5
5
5
5
5
5
5
5
5
5
5
5
5
5
5
5
5
5
5
5
5
5
5
5
5
5
5
5
5
5
5
5

POINT_DATA 171
SCALARS GLOBAL_ID int
LOOKUP_TABLE default
-1 -1 -1 -1 -1 -1 -1 -1 -1 
-1 -1 -1 -1 -1 -1 -1 -1 -1 
-1 -1 -1 -1 -1 -1 -1 -1 -1 
-1 -1 -1 -1 -1 -1 -1 -1 -1 
-1 -1 -1 -1 -1 -1 -1 -1 -1 
-1 -1 -1 -1 -1 -1 -1 -1 -1 
-1 -1 -1 -1 -1 -1 -1 -1 -1 
-1 -1 -1 -1 -1 -1 -1 -1 -1 
-1 -1 -1 -1 -1 -1 -1 -1 -1 
-1 -1 -1 -1 -1 -1 -1 -1 -1 
-1 -1 -1 -1 -1 -1 -1 -1 -1 
-1 -1 -1 -1 -1 -1 -1 -1 -1 
-1 -1 -1 -1 -1 -1 -1 -1 -1 
-1 -1 -1 -1 -1 -1 -1 -1 -1 
-1 -1 -1 -1 -1 -1 -1 -1 -1 
-1 -1 -1 -1 -1 -1 -1 -1 -1 
-1 -1 -1 -1 -1 -1 -1 -1 -1 
-1 -1 -1 -1 -1 -1 -1 -1 -1 
-1 -1 -1 -1 -1 -1 -1 -1 -1 

