# vtk DataFile Version 3.0
vtk output
ASCII
DATASET POLYDATA
FIELD FieldData 4
avtOriginalBounds 1 6 double
-10 10 -10 10 -10 10 
MeshName 1 1 string
mesh

CYCLE 1 1 int
0 
TIME 1 1 double
0 
POINTS 360 double
-10 2 2 -10 2 -2 -10 2 10 
-10 2 -10 -10 2 6 -10 2 -6 
-10 -2 2 -10 -2 -2 -10 -2 10 
-10 -2 -10 -10 -2 6 -10 -2 -6 
-10 10 2 -10 10 -2 -10 10 10 
-10 10 -10 -10 10 6 -10 10 -6 
-10 -10 2 -10 -10 -2 -10 -10 10 
-10 -10 -10 -10 -10 6 -10 -10 -6 
-10 6 2 -10 6 -2 -10 6 10 
-10 6 -10 -10 6 6 -10 6 -6 
-10 -6 2 -10 -6 -2 -10 -6 10 
-10 -6 -10 -10 -6 6 -10 -6 -6 
-6 2 2 -6 2 -2 -6 2 10 
-6 2 -10 -6 2 6 -6 2 -6 
-6 -2 2 -6 -2 -2 -6 -2 10 
-6 -2 -10 -6 -2 6 -6 -2 -6 
-6 10 2 -6 10 -2 -6 10 10 
-6 10 -10 -6 10 6 -6 10 -6 
-6 -10 2 -6 -10 -2 -6 -10 10 
-6 -10 -10 -6 -10 6 -6 -10 -6 
-6 6 2 -6 6 -2 -6 6 10 
-6 6 -10 -6 6 6 -6 6 -6 
-6 -6 2 -6 -6 -2 -6 -6 10 
-6 -6 -10 -6 -6 6 -6 -6 -6 
-2 2 2 -2 2 -2 -2 2 10 
-2 2 -10 -2 2 6 -2 2 -6 
-2 -2 2 -2 -2 -2 -2 -2 10 
-2 -2 -10 -2 -2 6 -2 -2 -6 
-2 10 2 -2 10 -2 -2 10 10 
-2 10 -10 -2 10 6 -2 10 -6 
-2 -10 2 -2 -10 -2 -2 -10 10 
-2 -10 -10 -2 -10 6 -2 -10 -6 
-2 6 2 -2 6 -2 -2 6 10 
-2 6 -10 -2 6 6 -2 6 -6 
-2 -6 2 -2 -6 -2 -2 -6 10 
-2 -6 -10 -2 -6 6 -2 -6 -6 
-6 2 2 -6 2 -2 -6 2 10 
-6 2 -10 -6 2 6 -6 2 -6 
-6 -2 2 -6 -2 -2 -6 -2 10 
-6 -2 -10 -6 -2 6 -6 -2 -6 
-6 10 2 -6 10 -2 -6 10 10 
-6 10 -10 -6 10 6 -6 10 -6 
-6 -10 2 -6 -10 -2 -6 -10 10 
-6 -10 -10 -6 -10 6 -6 -10 -6 
-6 6 2 -6 6 -2 -6 6 10 
-6 6 -10 -6 6 6 -6 6 -6 
-6 -6 2 -6 -6 -2 -6 -6 10 
-6 -6 -10 -6 -6 6 -6 -6 -6 
2 2 2 2 2 -2 2 2 10 
2 2 -10 2 2 6 2 2 -6 
2 -2 2 2 -2 -2 2 -2 10 
2 -2 -10 2 -2 6 2 -2 -6 
2 10 2 2 10 -2 2 10 10 
2 10 -10 2 10 6 2 10 -6 
2 -10 2 2 -10 -2 2 -10 10 
2 -10 -10 2 -10 6 2 -10 -6 
2 6 2 2 6 -2 2 6 10 
2 6 -10 2 6 6 2 6 -6 
2 -6 2 2 -6 -2 2 -6 10 
2 -6 -10 2 -6 6 2 -6 -6 
-2 2 2 -2 2 -2 -2 2 10 
-2 2 -10 -2 2 6 -2 2 -6 
-2 -2 2 -2 -2 -2 -2 -2 10 
-2 -2 -10 -2 -2 6 -2 -2 -6 
-2 10 2 -2 10 -2 -2 10 10 
-2 10 -10 -2 10 6 -2 10 -6 
-2 -10 2 -2 -10 -2 -2 -10 10 
-2 -10 -10 -2 -10 6 -2 -10 -6 
-2 6 2 -2 6 -2 -2 6 10 
-2 6 -10 -2 6 6 -2 6 -6 
-2 -6 2 -2 -6 -2 -2 -6 10 
-2 -6 -10 -2 -6 6 -2 -6 -6 
2 2 2 2 2 -2 2 2 10 
2 2 -10 2 2 6 2 2 -6 
2 -2 2 2 -2 -2 2 -2 10 
2 -2 -10 2 -2 6 2 -2 -6 
2 10 2 2 10 -2 2 10 10 
2 10 -10 2 10 6 2 10 -6 
2 -10 2 2 -10 -2 2 -10 10 
2 -10 -10 2 -10 6 2 -10 -6 
2 6 2 2 6 -2 2 6 10 
2 6 -10 2 6 6 2 6 -6 
2 -6 2 2 -6 -2 2 -6 10 
2 -6 -10 2 -6 6 2 -6 -6 
6 2 2 6 2 -2 6 2 10 
6 2 -10 6 2 6 6 2 -6 
6 -2 2 6 -2 -2 6 -2 10 
6 -2 -10 6 -2 6 6 -2 -6 
6 10 2 6 10 -2 6 10 10 
6 10 -10 6 10 6 6 10 -6 
6 -10 2 6 -10 -2 6 -10 10 
6 -10 -10 6 -10 6 6 -10 -6 
6 6 2 6 6 -2 6 6 10 
6 6 -10 6 6 6 6 6 -6 
6 -6 2 6 -6 -2 6 -6 10 
6 -6 -10 6 -6 6 6 -6 -6 
10 2 2 10 2 -2 10 2 10 
10 2 -10 10 2 6 10 2 -6 
10 -2 2 10 -2 -2 10 -2 10 
10 -2 -10 10 -2 6 10 -2 -6 
10 10 2 10 10 -2 10 10 10 
10 10 -10 10 10 6 10 10 -6 
10 -10 2 10 -10 -2 10 -10 10 
10 -10 -10 10 -10 6 10 -10 -6 
10 6 2 10 6 -2 10 6 10 
10 6 -10 10 6 6 10 6 -6 
10 -6 2 10 -6 -2 10 -6 10 
10 -6 -10 10 -6 6 10 -6 -6 
6 2 2 6 2 -2 6 2 10 
6 2 -10 6 2 6 6 2 -6 
6 -2 2 6 -2 -2 6 -2 10 
6 -2 -10 6 -2 6 6 -2 -6 
6 10 2 6 10 -2 6 10 10 
6 10 -10 6 10 6 6 10 -6 
6 -10 2 6 -10 -2 6 -10 10 
6 -10 -10 6 -10 6 6 -10 -6 
6 6 2 6 6 -2 6 6 10 
6 6 -10 6 6 6 6 6 -6 
6 -6 2 6 -6 -2 6 -6 10 
6 -6 -10 6 -6 6 6 -6 -6 

POLYGONS 500 2000
3 21 23 33 
3 35 33 23 
3 21 57 23 
3 59 23 57 
3 21 33 57 
3 69 57 33 
3 33 9 69 
3 45 69 9 
3 33 35 9 
3 11 9 35 
3 23 59 19 
3 55 19 59 
3 23 19 35 
3 31 35 19 
3 35 31 11 
3 7 11 31 
3 9 3 45 
3 39 45 3 
3 9 11 3 
3 5 3 11 
3 11 7 5 
3 1 5 7 
3 3 27 39 
3 63 39 27 
3 3 5 27 
3 29 27 5 
3 5 1 29 
3 25 29 1 
3 27 15 63 
3 51 63 15 
3 27 29 15 
3 17 15 29 
3 29 25 17 
3 13 17 25 
3 15 17 51 
3 53 51 17 
3 17 13 53 
3 49 53 13 
3 19 55 18 
3 54 18 55 
3 19 18 31 
3 30 31 18 
3 31 30 7 
3 6 7 30 
3 7 6 1 
3 0 1 6 
3 1 0 25 
3 24 25 0 
3 25 24 13 
3 12 13 24 
3 13 12 49 
3 48 49 12 
3 18 54 22 
3 58 22 54 
3 18 22 30 
3 34 30 22 
3 30 34 6 
3 10 6 34 
3 6 10 0 
3 4 0 10 
3 0 4 24 
3 28 24 4 
3 24 28 12 
3 16 12 28 
3 12 16 48 
3 52 48 16 
3 22 58 20 
3 56 20 58 
3 22 20 34 
3 32 34 20 
3 34 32 10 
3 8 10 32 
3 10 8 4 
3 2 4 8 
3 4 2 28 
3 26 28 2 
3 28 26 16 
3 14 16 26 
3 16 14 52 
3 50 52 14 
3 20 56 32 
3 68 32 56 
3 32 68 8 
3 44 8 68 
3 8 44 2 
3 38 2 44 
3 2 38 26 
3 62 26 38 
3 26 62 14 
3 50 14 62 
3 57 69 59 
3 71 59 69 
3 59 71 55 
3 67 55 71 
3 69 45 71 
3 47 71 45 
3 71 47 67 
3 43 67 47 
3 45 39 47 
3 41 47 39 
3 47 41 43 
3 37 43 41 
3 39 63 41 
3 65 41 63 
3 41 65 37 
3 61 37 65 
3 63 51 65 
3 53 65 51 
3 65 53 61 
3 49 61 53 
3 55 67 54 
3 66 54 67 
3 67 43 66 
3 42 66 43 
3 43 37 42 
3 36 42 37 
3 37 61 36 
3 60 36 61 
3 61 49 60 
3 48 60 49 
3 54 66 58 
3 70 58 66 
3 66 42 70 
3 46 70 42 
3 42 36 46 
3 40 46 36 
3 36 60 40 
3 64 40 60 
3 60 48 64 
3 52 64 48 
3 58 70 56 
3 68 56 70 
3 70 46 68 
3 44 68 46 
3 46 40 44 
3 38 44 40 
3 40 64 38 
3 62 38 64 
3 64 52 62 
3 50 62 52 
3 93 129 105 
3 141 105 129 
3 93 95 129 
3 131 129 95 
3 95 91 131 
3 127 131 91 
3 105 141 81 
3 117 81 141 
3 81 117 75 
3 111 75 117 
3 75 111 99 
3 135 99 111 
3 99 135 87 
3 123 87 135 
3 87 123 89 
3 125 89 123 
3 89 125 85 
3 121 85 125 
3 91 90 127 
3 126 127 90 
3 85 121 84 
3 120 84 121 
3 90 94 126 
3 130 126 94 
3 84 120 88 
3 124 88 120 
3 94 92 130 
3 128 130 92 
3 88 124 86 
3 122 86 124 
3 92 104 128 
3 140 128 104 
3 104 80 140 
3 116 140 80 
3 80 74 116 
3 110 116 74 
3 74 98 110 
3 134 110 98 
3 98 86 134 
3 122 134 86 
3 93 105 95 
3 107 95 105 
3 95 107 91 
3 103 91 107 
3 105 81 107 
3 83 107 81 
3 107 83 103 
3 79 103 83 
3 81 75 83 
3 77 83 75 
3 83 77 79 
3 73 79 77 
3 75 99 77 
3 101 77 99 
3 77 101 73 
3 97 73 101 
3 99 87 101 
3 89 101 87 
3 101 89 97 
3 85 97 89 
3 91 103 90 
3 102 90 103 
3 103 79 102 
3 78 102 79 
3 79 73 78 
3 72 78 73 
3 73 97 72 
3 96 72 97 
3 97 85 96 
3 84 96 85 
3 90 102 94 
3 106 94 102 
3 102 78 106 
3 82 106 78 
3 78 72 82 
3 76 82 72 
3 72 96 76 
3 100 76 96 
3 96 84 100 
3 88 100 84 
3 94 106 92 
3 104 92 106 
3 106 82 104 
3 80 104 82 
3 82 76 80 
3 74 80 76 
3 76 100 74 
3 98 74 100 
3 100 88 98 
3 86 98 88 
3 165 201 177 
3 213 177 201 
3 165 167 201 
3 203 201 167 
3 167 163 203 
3 199 203 163 
3 177 213 153 
3 189 153 213 
3 153 189 147 
3 183 147 189 
3 147 183 171 
3 207 171 183 
3 171 207 159 
3 195 159 207 
3 159 195 161 
3 197 161 195 
3 161 197 157 
3 193 157 197 
3 163 162 199 
3 198 199 162 
3 157 193 156 
3 192 156 193 
3 162 166 198 
3 202 198 166 
3 156 192 160 
3 196 160 192 
3 166 164 202 
3 200 202 164 
3 160 196 158 
3 194 158 196 
3 164 176 200 
3 212 200 176 
3 176 152 212 
3 188 212 152 
3 152 146 188 
3 182 188 146 
3 146 170 182 
3 206 182 170 
3 170 158 206 
3 194 206 158 
3 165 177 167 
3 179 167 177 
3 167 179 163 
3 175 163 179 
3 177 153 179 
3 155 179 153 
3 179 155 175 
3 151 175 155 
3 153 147 155 
3 149 155 147 
3 155 149 151 
3 145 151 149 
3 147 171 149 
3 173 149 171 
3 149 173 145 
3 169 145 173 
3 171 159 173 
3 161 173 159 
3 173 161 169 
3 157 169 161 
3 163 175 162 
3 174 162 175 
3 175 151 174 
3 150 174 151 
3 151 145 150 
3 144 150 145 
3 145 169 144 
3 168 144 169 
3 169 157 168 
3 156 168 157 
3 162 174 166 
3 178 166 174 
3 174 150 178 
3 154 178 150 
3 150 144 154 
3 148 154 144 
3 144 168 148 
3 172 148 168 
3 168 156 172 
3 160 172 156 
3 166 178 164 
3 176 164 178 
3 178 154 176 
3 152 176 154 
3 154 148 152 
3 146 152 148 
3 148 172 146 
3 170 146 172 
3 172 160 170 
3 158 170 160 
3 273 237 285 
3 249 285 237 
3 273 275 237 
3 239 237 275 
3 275 271 239 
3 235 239 271 
3 285 249 261 
3 225 261 249 
3 261 225 255 
3 219 255 225 
3 255 219 279 
3 243 279 219 
3 279 243 267 
3 231 267 243 
3 267 231 269 
3 233 269 231 
3 269 233 265 
3 229 265 233 
3 271 270 235 
3 234 235 270 
3 265 229 264 
3 228 264 229 
3 270 274 234 
3 238 234 274 
3 264 228 268 
3 232 268 228 
3 274 272 238 
3 236 238 272 
3 268 232 266 
3 230 266 232 
3 272 284 236 
3 248 236 284 
3 284 260 248 
3 224 248 260 
3 260 254 224 
3 218 224 254 
3 254 278 218 
3 242 218 278 
3 278 266 242 
3 230 242 266 
3 273 285 275 
3 287 275 285 
3 275 287 271 
3 283 271 287 
3 285 261 287 
3 263 287 261 
3 287 263 283 
3 259 283 263 
3 261 255 263 
3 257 263 255 
3 263 257 259 
3 253 259 257 
3 255 279 257 
3 281 257 279 
3 257 281 253 
3 277 253 281 
3 279 267 281 
3 269 281 267 
3 281 269 277 
3 265 277 269 
3 271 283 270 
3 282 270 283 
3 283 259 282 
3 258 282 259 
3 259 253 258 
3 252 258 253 
3 253 277 252 
3 276 252 277 
3 277 265 276 
3 264 276 265 
3 270 282 274 
3 286 274 282 
3 282 258 286 
3 262 286 258 
3 258 252 262 
3 256 262 252 
3 252 276 256 
3 280 256 276 
3 276 264 280 
3 268 280 264 
3 274 286 272 
3 284 272 286 
3 286 262 284 
3 260 284 262 
3 262 256 260 
3 254 260 256 
3 256 280 254 
3 278 254 280 
3 280 268 278 
3 266 278 268 
3 309 345 321 
3 357 321 345 
3 309 311 345 
3 347 345 311 
3 309 321 311 
3 323 311 321 
3 311 307 347 
3 343 347 307 
3 311 323 307 
3 319 307 323 
3 321 297 323 
3 299 323 297 
3 323 299 319 
3 295 319 299 
3 321 357 297 
3 333 297 357 
3 297 291 299 
3 293 299 291 
3 299 293 295 
3 289 295 293 
3 297 333 291 
3 327 291 333 
3 291 315 293 
3 317 293 315 
3 293 317 289 
3 313 289 317 
3 291 327 315 
3 351 315 327 
3 315 303 317 
3 305 317 303 
3 317 305 313 
3 301 313 305 
3 315 351 303 
3 339 303 351 
3 303 339 305 
3 341 305 339 
3 305 341 301 
3 337 301 341 
3 307 306 343 
3 342 343 306 
3 307 319 306 
3 318 306 319 
3 319 295 318 
3 294 318 295 
3 295 289 294 
3 288 294 289 
3 289 313 288 
3 312 288 313 
3 313 301 312 
3 300 312 301 
3 301 337 300 
3 336 300 337 
3 306 310 342 
3 346 342 310 
3 306 318 310 
3 322 310 318 
3 318 294 322 
3 298 322 294 
3 294 288 298 
3 292 298 288 
3 288 312 292 
3 316 292 312 
3 312 300 316 
3 304 316 300 
3 300 336 304 
3 340 304 336 
3 310 308 346 
3 344 346 308 
3 310 322 308 
3 320 308 322 
3 322 298 320 
3 296 320 298 
3 298 292 296 
3 290 296 292 
3 292 316 290 
3 314 290 316 
3 316 304 314 
3 302 314 304 
3 304 340 302 
3 338 302 340 
3 308 320 344 
3 356 344 320 
3 320 296 356 
3 332 356 296 
3 296 290 332 
3 326 332 290 
3 290 314 326 
3 350 326 314 
3 314 302 350 
3 338 350 302 

CELL_DATA 500
FIELD FieldData 1
avtOriginalCellNumbers 2 500 unsigned_int
0 0 0 1 0 2 0 3 0 
4 0 5 0 6 0 7 0 8 
0 9 0 10 0 11 0 12 0 
13 0 14 0 15 0 16 0 17 
0 18 0 19 0 20 0 21 0 
22 0 23 0 24 0 25 0 26 
0 27 0 28 0 29 0 30 0 
31 0 32 0 33 0 34 0 35 
0 36 0 37 0 38 0 39 0 
40 0 41 0 42 0 43 0 44 
0 45 0 46 0 47 0 48 0 
49 0 50 0 51 0 52 0 53 
0 54 0 55 0 56 0 57 0 
58 0 59 0 60 0 61 0 62 
0 63 0 64 0 65 0 66 0 
67 0 68 0 69 0 70 0 71 
0 72 0 73 0 74 0 75 0 
76 0 77 0 78 0 79 0 80 
0 81 0 82 0 83 0 84 0 
85 0 86 0 87 0 88 0 89 
0 90 0 91 0 92 0 93 0 
94 0 95 0 96 0 97 0 98 
0 99 0 100 0 101 0 102 0 
103 0 104 0 105 0 106 0 107 
0 108 0 109 0 110 0 111 0 
112 0 113 0 114 0 115 0 116 
0 117 0 118 0 119 0 120 0 
121 0 122 0 123 0 124 0 125 
0 126 0 127 0 128 0 129 0 
130 0 131 0 132 0 133 0 134 
0 135 0 136 0 137 0 138 0 
139 0 140 0 141 0 142 0 143 
0 144 0 145 0 146 0 147 0 
148 0 149 0 150 0 151 0 152 
0 153 0 154 0 155 0 156 0 
157 0 158 0 159 0 160 0 161 
0 162 0 163 0 164 0 165 0 
166 0 167 0 168 0 169 0 170 
0 171 0 172 0 173 0 174 0 
175 0 176 0 177 0 178 0 179 
0 180 0 181 0 182 0 183 0 
184 0 185 0 186 0 187 0 188 
0 189 0 190 0 191 0 192 0 
193 0 194 0 195 0 196 0 197 
0 198 0 199 0 200 0 201 0 
202 0 203 0 204 0 205 0 206 
0 207 0 208 0 209 0 210 0 
211 0 212 0 213 0 214 0 215 
0 216 0 217 0 218 0 219 0 
220 0 221 0 222 0 223 0 224 
0 225 0 226 0 227 0 228 0 
229 0 230 0 231 0 232 0 233 
0 234 0 235 0 236 0 237 0 
238 0 239 0 240 0 241 0 242 
0 243 0 244 0 245 0 246 0 
247 0 248 0 249 0 250 0 251 
0 252 0 253 0 254 0 255 0 
256 0 257 0 258 0 259 0 260 
0 261 0 262 0 263 0 264 0 
265 0 266 0 267 0 268 0 269 
0 270 0 271 0 272 0 273 0 
274 0 275 0 276 0 277 0 278 
0 279 0 280 0 281 0 282 0 
283 0 284 0 285 0 286 0 287 
0 288 0 289 0 290 0 291 0 
292 0 293 0 294 0 295 0 296 
0 297 0 298 0 299 0 300 0 
301 0 302 0 303 0 304 0 305 
0 306 0 307 0 308 0 309 0 
310 0 311 0 312 0 313 0 314 
0 315 0 316 0 317 0 318 0 
319 0 320 0 321 0 322 0 323 
0 324 0 325 0 326 0 327 0 
328 0 329 0 330 0 331 0 332 
0 333 0 334 0 335 0 336 0 
337 0 338 0 339 0 340 0 341 
0 342 0 343 0 344 0 345 0 
346 0 347 0 348 0 349 0 350 
0 351 0 352 0 353 0 354 0 
355 0 356 0 357 0 358 0 359 
0 360 0 361 0 362 0 363 0 
364 0 365 0 366 0 367 0 368 
0 369 0 370 0 371 0 372 0 
373 0 374 0 375 0 376 0 377 
0 378 0 379 0 380 0 381 0 
382 0 383 0 384 0 385 0 386 
0 387 0 388 0 389 0 390 0 
391 0 392 0 393 0 394 0 395 
0 396 0 397 0 398 0 399 0 
400 0 401 0 402 0 403 0 404 
0 405 0 406 0 407 0 408 0 
409 0 410 0 411 0 412 0 413 
0 414 0 415 0 416 0 417 0 
418 0 419 0 420 0 421 0 422 
0 423 0 424 0 425 0 426 0 
427 0 428 0 429 0 430 0 431 
0 432 0 433 0 434 0 435 0 
436 0 437 0 438 0 439 0 440 
0 441 0 442 0 443 0 444 0 
445 0 446 0 447 0 448 0 449 
0 450 0 451 0 452 0 453 0 
454 0 455 0 456 0 457 0 458 
0 459 0 460 0 461 0 462 0 
463 0 464 0 465 0 466 0 467 
0 468 0 469 0 470 0 471 0 
472 0 473 0 474 0 475 0 476 
0 477 0 478 0 479 0 480 0 
481 0 482 0 483 0 484 0 485 
0 486 0 487 0 488 0 489 0 
490 0 491 0 492 0 493 0 494 
0 495 0 496 0 497 0 498 0 
499 
